21
 energy: -39.631848465899 gnorm: 0.000807029077 xtb: 6.7.1 (edcfbbe)
C           -2.45984146318601       -2.35906679650132        0.10013316996898
C           -1.53215960754457       -1.30255379606986       -0.41677539445761
O           -1.02436391345180       -1.27561019211818       -1.50273645730329
O           -1.34820563154936       -0.34101212807730        0.51804849177999
C           -0.36540819371586        0.60651974327602        0.32564354827736
C           -0.72497764666511        1.94381748118730        0.41249295492441
C            0.23006925414252        2.93010905156955        0.24764891238283
C            1.54578764936957        2.58788606606697       -0.02237452660200
C            1.90773310594634        1.25805438450093       -0.11135098349985
C            0.96340387797709        0.25032406606398        0.07048934791582
C            1.37578798941338       -1.17364863666708        0.02863218758539
O            0.81772195133162       -2.08006550292259        0.59623396223413
O            2.48543602718963       -1.36420073589473       -0.69192504627638
H           -2.96161320123821       -2.85109055108244       -0.72719104096757
H           -3.17467025121399       -1.93180453704803        0.79656326742407
H           -1.84765545801834       -3.08731200328396        0.63053077875934
H           -1.75632946015434        2.19229105023983        0.60876145277507
H           -0.05686600747367        3.96822698557209        0.32059926087235
H            2.28834121139400        3.35842956059518       -0.16205375251728
H            2.92981698586790        0.97911574349004       -0.31337840657005
H            2.70799378157944       -2.30841125289698       -0.70799072670613
21
 energy: -39.617549134682 gnorm: 0.063633784855 xtb: 6.7.1 (edcfbbe)
C           -2.50501368959339       -2.34785998024808        0.08963026070670
C           -1.52449929516644       -1.35564291274062       -0.45635934622949
O           -0.84819439942295       -1.41460897035521       -1.44480690219404
O           -1.44279332464602       -0.28791954788806        0.37164315326038
C           -0.36614548557533        0.57308105655444        0.35632615692719
C           -0.66826732189086        1.91865453347304        0.50914231356832
C            0.22823591148250        2.94129414712980        0.25904343519737
C            1.53267550408397        2.58739231655698       -0.04809664252593
C            1.92478982798227        1.26330034088895       -0.06810912804957
C            0.98634093824127        0.26326686424190        0.17600324469954
C            1.36231046144491       -1.16572063673733        0.04890987507781
O            0.96619267607321       -2.09602285609375        0.70680770978682
O            2.31532714073206       -1.31041089910985       -0.87718709246447
H           -2.94388780271411       -2.98698316710227       -0.67013198713351
H           -3.35403789442210       -1.73762525452652        0.38172544792015
H           -2.06115804432428       -2.80308370486435        0.97404981136926
H           -1.68871945284743        2.16887717545977        0.75411807009066
H           -0.00488935464387        3.99462290973351        0.29769061724711
H            2.24741903474463        3.38372721866755       -0.18818874791287
H            2.95372390340524        0.96338194709013       -0.18902636659553
H            2.64290103243732       -2.22070856376145       -0.95051564678214
21
 energy: -39.618317148542 gnorm: 0.054743389181 xtb: 6.7.1 (edcfbbe)
C           -2.59566590075652       -2.29918273777274        0.02483842172490
C           -1.45555924866068       -1.39466328952575       -0.33013936629501
O           -0.74358639257917       -1.56272299351132       -1.28026802557987
O           -1.31876456458929       -0.34727110545931        0.51635577261542
C           -0.37926763945323        0.64125340847528        0.31413797644287
C           -0.73345861760208        1.98051848678080        0.39234403391590
C            0.23265007838065        2.96811411068861        0.33448076757893
C            1.54674518082960        2.59181071439840        0.10492901777344
C            1.88145325518141        1.27128331700355       -0.12212077337281
C            0.93685186962431        0.25920102617543        0.03202782083471
C            1.35385303516800       -1.16177313112313       -0.04830631681558
O            1.08042282947548       -1.98431996966923        0.79065357804325
O            2.24390836856847       -1.38581064112907       -1.02012953300717
H           -2.70141680768402       -3.06154614546119       -0.74063292867049
H           -3.53016379226556       -1.75665387154291       -0.07968067165848
H           -2.37700581741403       -2.59683807921358        1.04954495548351
H           -1.77531995684903        2.25104835221221        0.46504613671036
H            0.10316653754716        4.02960831273454        0.48215118649505
H            2.24454221869235        3.41472342363251        0.08196470797124
H            2.91077200444369        0.97120307102652       -0.23930487606724
H            2.37999003813684       -2.34158063364970       -1.11661305518930
21
 energy: -39.617754666386 gnorm: 0.062926174274 xtb: 6.7.1 (edcfbbe)
C           -2.65644294082771       -2.22361562940184       -0.03690214199058
C           -1.42291000301564       -1.41691260709105       -0.30454847699196
O           -0.68287453769625       -1.66897613515998       -1.21378187101268
O           -1.34618556615566       -0.28876860355204        0.43956284085359
C           -0.32555449433680        0.62591215014213        0.28990141779773
C           -0.72944585240610        1.94568503359085        0.43227300138719
C            0.21773334555926        2.95161418741331        0.37734235188665
C            1.55008653721187        2.62090672856888        0.18600042885989
C            1.89998397475693        1.30950194513342       -0.06926998121422
C            0.99560841104344        0.25368155978958        0.01843563522964
C            1.38870124131271       -1.17322531505234       -0.07604126644642
O            1.18291883638961       -1.90213171092315        0.86286775177192
O            2.10529440423633       -1.47594548781789       -1.16309526700738
H           -2.56625688227618       -3.21571803830040       -0.46809454973481
H           -3.56317607110742       -1.73583154046198       -0.38106755837237
H           -2.63564572767004       -2.30550365169568        1.04905192747954
H           -1.79061119947986        2.09174989653647        0.56088173218935
H           -0.00522265723325        4.00457293358646        0.46047461895086
H            2.15880452700203        3.50928347739384        0.11612517104965
H            2.93113357912888        1.08895432256624       -0.29591197066244
H            2.34602289092866       -2.41582005910060       -1.16006944067990
21
 energy: -39.614150810573 gnorm: 0.061731752246 xtb: 6.7.1 (edcfbbe)
C           -2.68811754408122       -2.20108606628759       -0.03604423052177
C           -1.41813236383352       -1.47965180148113       -0.36872738404355
O           -0.69913225116296       -1.78348666389865       -1.27901145841420
O           -1.40536255126314       -0.32092278622650        0.33090194161428
C           -0.37321321835670        0.58698521264227        0.22555468470311
C           -0.70057761597128        1.91228228693451        0.47378559006568
C            0.23580080964007        2.92467528818914        0.37222215257364
C            1.56204266216915        2.63861456563590        0.08868027270951
C            1.93568030596933        1.31603655228980       -0.04754019792533
C            0.98986327000431        0.30248527761465        0.08843067208107
C            1.43961884154995       -1.10935464709488        0.02566886186446
O            1.32089968734913       -1.93961428606269        0.89271890483805
O            2.05500221655244       -1.36214054795408       -1.13374230384108
H           -2.69093269235440       -3.28569294696832       -0.08017583445279
H           -3.46951629942198       -1.68897109075871       -0.58894779991242
H           -2.85743288373532       -1.96536436511153        1.01381385940493
H           -1.68560439791937        2.08607907457705        0.87809235513147
H           -0.03660130619215        3.93866467617339        0.62315059551923
H            2.17557400627391        3.51785207019238       -0.03442168959319
H            2.95828166761081        1.01219401050133       -0.20642229183984
H            2.23647653747539       -2.30402413751355       -1.27950219223284
21
 energy: -39.617540450631 gnorm: 0.067251267126 xtb: 6.7.1 (edcfbbe)
C           -2.74980940977726       -2.16607774158894       -0.04538884196710
C           -1.53337325961733       -1.36284890225242       -0.39051832374143
O           -0.72413474783575       -1.79845542968318       -1.16076105451447
O           -1.40722169020728       -0.32867477575848        0.47369626054946
C           -0.36713815802184        0.56902927520940        0.35932447609438
C           -0.70281104581584        1.91243282477436        0.44757967481100
C            0.22843740986379        2.93323652335126        0.39470816184655
C            1.56123733729831        2.63002277044711        0.16481697715790
C            1.90234807769745        1.31242700484527       -0.06961544999082
C            0.96975810617184        0.28574696834271        0.05902423882486
C            1.47607733050506       -1.10269864970833       -0.06495438962096
O            1.34317002043618       -1.96638776550576        0.76665720050111
O            2.18554714914508       -1.38745615992114       -1.16149321698034
H           -2.46868510588873       -3.21111897402435        0.03937881217652
H           -3.49640439880774       -1.98451005686728       -0.81231596896223
H           -3.09148244581020       -1.81251136950042        0.92656011287324
H           -1.74019818736538        2.16443318603590        0.60337049615853
H           -0.11311547533252        3.94424630101712        0.55762940190155
H            2.25021680789070        3.44762058164496        0.01827518274500
H            2.89085051796304        1.00912648449025       -0.37645265541313
H            2.49051548118860       -2.30849365684365       -1.15869758020596
21
 energy: -39.613227543674 gnorm: 0.068933692985 xtb: 6.7.1 (edcfbbe)
C           -2.74547076200062       -2.13936786346219        0.00648511964543
C           -1.51779238518215       -1.33998191081072       -0.30623790196687
O           -0.71496575553293       -1.65432585059800       -1.13963524077488
O           -1.34746210763076       -0.34202142514179        0.59229399503962
C           -0.35405622629579        0.57682288853966        0.32848175821125
C           -0.76360763897655        1.89874604025661        0.42840650136235
C            0.20541981225823        2.88157805362804        0.34422715275428
C            1.53871440831371        2.57601654912165        0.12039295304194
C            1.86909157527713        1.25678903767396       -0.12015485200551
C            0.93625708981975        0.22304419098358       -0.08097221759355
C            1.45097327679196       -1.16779666415630       -0.09279345051153
O            1.17226633943709       -2.01893184307910        0.71534780657245
O            2.31637336056826       -1.26885804328609       -1.10654925282959
H           -2.48349964455868       -3.16513279952030        0.24628717818317
H           -3.15158411897703       -2.16741048160122       -0.99991125636826
H           -3.25624717388018       -1.62246583074708        0.81787537789947
H           -1.78381606123061        2.11747771355024        0.70277520122491
H           -0.10309484688910        3.89419481160121        0.55581263568786
H            2.31446607387294        3.32476682324168        0.07332172827698
H            2.90571437760833        0.97995033025770       -0.22993076079027
H            2.66039355901067       -2.16298870703189       -1.25985942582922
21
 energy: -39.615521178809 gnorm: 0.055581681880 xtb: 6.7.1 (edcfbbe)
C           -2.70940055044196       -2.17628380329548        0.02977358629320
C           -1.50938114193788       -1.38291927419606       -0.38799907500369
O           -0.83792753853625       -1.58331465061750       -1.36107956756246
O           -1.35799113631616       -0.33537826767287        0.45582324946665
C           -0.30556106592090        0.55510788709969        0.44347037599235
C           -0.69696159709584        1.87739068614399        0.59700280430602
C            0.22354353709835        2.88821835529295        0.38974208974094
C            1.54020634079947        2.63574733516557        0.03788752261663
C            1.90632043880040        1.31025753552224       -0.09021778188040
C            1.02391082099242        0.25462349030309        0.12734639538518
C            1.46304180334571       -1.15637949144237        0.00186461349881
O            1.08059671117405       -2.12979614210735        0.60302754206662
O            2.33649555663786       -1.24593539930099       -1.00604904476859
H           -2.49058315114896       -3.08260435947600        0.58567790162403
H           -3.09426648124387       -2.58063648145529       -0.90131462090351
H           -3.27532589309478       -1.54299957324606        0.71176626112632
H           -1.72473286752924        2.14506767263281        0.78669281563558
H           -0.14353304299836        3.90339531102190        0.39334890824094
H            2.25896643378064        3.37174930632000       -0.28817753294438
H            2.91149418628395        1.10131554959797       -0.42074212540293
H            2.53101850145321       -2.19559222604991       -1.04650026956904
21
 energy: -39.617559755902 gnorm: 0.057623285444 xtb: 6.7.1 (edcfbbe)
C           -2.62887125699434       -2.21213945092697        0.02008952978691
C           -1.53384251602830       -1.30378891608580       -0.44875922149647
O           -0.93672633914355       -1.31111161307734       -1.48861136746786
O           -1.29262735492766       -0.44563391390753        0.56990772406538
C           -0.34319803814490        0.53022279390192        0.35307905001286
C           -0.70878796433169        1.85179964847411        0.56515630563824
C            0.20718288134116        2.86902034431404        0.36940493476143
C            1.50872534157313        2.58429171443316       -0.01277420759237
C            1.94460924744028        1.28144610870097       -0.15409689174265
C            0.98591621246062        0.28169020524202       -0.00665314257071
C            1.42614169973982       -1.13449098169047       -0.01861795958183
O            0.97444496627659       -2.05697017753734        0.61399814967797
O            2.40871805481460       -1.33868438782676       -0.90161303248439
H           -2.14509077217212       -2.76565723041261        0.81877727230075
H           -2.99112291820869       -2.98470042348361       -0.65108212326093
H           -3.41816254872942       -1.71776785831823        0.58493498679373
H           -1.68972436144796        2.12205154243456        0.92386880084029
H           -0.07445842625486        3.89080954100047        0.57426445367876
H            2.25051390045462        3.34571465857836       -0.19883376282613
H            3.00820748218699        1.13437036237263       -0.25610065970997
H            2.53606023601068       -2.29991307500450       -0.93547944964395
21
 energy: -39.617945574364 gnorm: 0.051269598228 xtb: 6.7.1 (edcfbbe)
C           -2.43043631264925       -2.36308632839800        0.08654082158063
C           -1.52991329879741       -1.25887688216893       -0.37583092968088
O           -1.21889770337451       -1.10195686938088       -1.52323638836808
O           -1.25639832819723       -0.37432003280578        0.61161320896389
C           -0.30820333784138        0.60356856995506        0.39857012267356
C           -0.70543289100248        1.92779970093126        0.51612425148752
C            0.23597704760988        2.93523340627425        0.41179814656307
C            1.51937448889017        2.52932796672332        0.08122898465999
C            1.89220248188345        1.24294446755410       -0.25580288827010
C            0.97420296174401        0.22390417114957       -0.01253783333955
C            1.40908274069642       -1.19366755409076       -0.04222093947307
O            0.84221102922531       -2.05767201062049        0.58015663675491
O            2.46597969136727       -1.43720382317361       -0.82355991374579
H           -2.09093593432108       -2.82811723654111        1.00676544392716
H           -2.48222467168740       -3.08233440360423       -0.72496906250410
H           -3.45960412160249       -2.02201831952929        0.19104273258352
H           -1.75495800606649        2.12822252267643        0.66537161687111
H           -0.01776371905009        3.97727106570063        0.53474374117476
H            2.30214090213894        3.26491067948181       -0.02282966233463
H            2.89379897916885        1.22093489632105       -0.65529931807769
H            2.77191109964045       -2.35594147966751       -0.76313919038681
21
 energy: -39.613758367055 gnorm: 0.081012417882 xtb: 6.7.1 (edcfbbe)
C           -2.29468844330182       -2.45790479323501        0.14395272015515
C           -1.60703346456366       -1.25680712440678       -0.42919896959739
O           -1.36071024998936       -0.92932752354503       -1.55613102794839
O           -1.33289556442735       -0.37186033540339        0.55772290272659
C           -0.37520073645580        0.60791817576294        0.40415886657735
C           -0.69458125347335        1.94745392843348        0.57397772382912
C            0.29342834763875        2.88654525667967        0.34159056355567
C            1.56761177816327        2.51934582922841       -0.06185132713839
C            1.88965401834949        1.18112896817735       -0.17515681847566
C            0.92317219955955        0.20822421079280        0.06920634882029
C            1.39729056399609       -1.19172013704131       -0.05277193868230
O            0.71714073064469       -2.05607405362715        0.44269712546158
O            2.54981702747111       -1.35258340578351       -0.71052374083578
H           -1.91451726686102       -2.64598329643204        1.14316439016915
H           -2.14154009019454       -3.26976728255659       -0.56030078573862
H           -3.36876914295850       -2.33710180947809        0.00907609187072
H           -1.66465699772251        2.25335975758667        0.93359103282386
H            0.12294037344037        3.92960611359505        0.56136403480433
H            2.33526977749988        3.24266663342640       -0.29019668577990
H            2.93385555413185        0.98998843882295       -0.36590746574775
H            2.76940243006723       -2.29559726712954       -0.77241622164804
21
 energy: -39.619426744557 gnorm: 0.048395923239 xtb: 6.7.1 (edcfbbe)
C           -2.24762051485566       -2.43515607953286        0.15453994226331
C           -1.64122117095067       -1.19507870522032       -0.42726396097600
O           -1.39816877055986       -0.92585082293476       -1.57021442336278
O           -1.33507290254626       -0.34399887304538        0.57982766822227
C           -0.34434030667544        0.60343465939104        0.43304259738653
C           -0.67385382520759        1.94043220782976        0.60350312487641
C            0.27053200854960        2.90428746337564        0.30154661695412
C            1.56142389952100        2.54471580812004       -0.05264337131796
C            1.89957907313788        1.20967538741184       -0.15604486408836
C            0.97194798052867        0.21841398080291        0.15579728286619
C            1.32321896101220       -1.20281326318506       -0.08133757303980
O            0.66385237728932       -2.17091976176083        0.20711798735757
O            2.54622862841656       -1.36123858864026       -0.59707048990899
H           -1.93393014695271       -2.50016589851807        1.19169937294154
H           -1.78177225652480       -3.24805987208048       -0.39384034917965
H           -3.31339097194660       -2.58534317946280       -0.01282667591712
H           -1.61467945592843        2.30204722125502        0.98824820277110
H            0.07173747820483        3.96359690650834        0.36226498187801
H            2.35008292984256        3.24300082866502       -0.28726723887885
H            2.90946985294568        0.94462102701268       -0.42649663549926
H            2.71041029388892       -2.31545573837250       -0.65901870138612
21
 energy: -39.617525370102 gnorm: 0.064453136422 xtb: 6.7.1 (edcfbbe)
C           -2.26982337533270       -2.45587349968413        0.14987351295583
C           -1.56010397846788       -1.20579980263522       -0.27157868914578
O           -1.41067171177536       -0.94535456047113       -1.43249735297996
O           -1.24114132467881       -0.34563591753655        0.72374944231129
C           -0.30704919888991        0.59119552438083        0.33574692538000
C           -0.68463585087868        1.91990466342493        0.46673816746116
C            0.26881407312707        2.91506072426585        0.35423514650080
C            1.57392637888454        2.56743002767122        0.04282070298004
C            1.92724829232961        1.26188966672681       -0.23664610647195
C            1.00503144947899        0.24409233769531       -0.00437724978707
C            1.27176493601262       -1.20442609945850       -0.17803979370537
O            0.60435508619287       -2.18459477951781        0.04339764071462
O            2.55981486040348       -1.38361811164552       -0.48731195792225
H           -2.38660343764032       -2.58718577471071        1.22106309013435
H           -1.72609920222629       -3.32980116811861       -0.19532581057207
H           -3.27360042637616       -2.35117315291749       -0.25988724886122
H           -1.70567185024692        2.20411979706790        0.66836726254442
H           -0.00380018462629        3.95214283810931        0.47867240493509
H            2.32222090349310        3.32995217009121       -0.10965446537152
H            2.93786705385115        0.99728633633823       -0.50481052029164
H            2.77474680033688       -2.31913550631683       -0.62850344056958
21
 energy: -39.615125949239 gnorm: 0.066260775708 xtb: 6.7.1 (edcfbbe)
C           -2.43372748538084       -2.40243041648433        0.19630540747731
C           -1.69939612350526       -1.21169844627910       -0.33934621715981
O           -1.41101067776460       -0.99632353874874       -1.48317372286572
O           -1.28203198780668       -0.42464501162036        0.67979619559351
C           -0.31794140786595        0.52024577334896        0.39972836153578
C           -0.65445151416262        1.85698219935969        0.55814255700004
C            0.30642916253091        2.83101482745164        0.35807244298201
C            1.62231079923818        2.57875700922081        0.00315596298682
C            1.93371373112543        1.25170326289165       -0.21894826137903
C            0.98047641823828        0.25071857704771       -0.04657532368252
C            1.41215693982474       -1.15542160203751       -0.23613489708638
O            0.68309406253736       -2.09859925802425       -0.05151551413372
O            2.72088892658647       -1.31272424784057       -0.45818924821887
H           -2.68042037665018       -2.17278116905637        1.22816365702698
H           -1.80721952587585       -3.28887025932554        0.18017150908296
H           -3.42281064663898       -2.40211883153086       -0.25992788540845
H           -1.67267743044431        2.09301422645585        0.82544747384959
H           -0.13453062263206        3.81339710541178        0.43437450699654
H            2.25515761651754        3.43752126179613       -0.16012987248232
H            2.93750115776565        0.91016838838058       -0.41653897965658
H            2.89676490723013       -2.26065445124967       -0.56690694927438
21
 energy: -39.617299642537 gnorm: 0.058424522632 xtb: 6.7.1 (edcfbbe)
C           -2.61063850109638       -2.24404869166796        0.25576939127440
C           -1.75825858901763       -1.20671144076473       -0.40860080000922
O           -1.57492920849410       -1.11637216843643       -1.59017730491308
O           -1.19198462591830       -0.46952200912277        0.57536197117200
C           -0.26193925088254        0.53967627736507        0.44397842851432
C           -0.62867158964071        1.86552249497603        0.62518983547791
C            0.27611973623205        2.88999157515162        0.41572614645897
C            1.52833203478744        2.57736255910340       -0.08961694769755
C            1.88324612127580        1.24717170859934       -0.19917057914251
C            1.03541264721852        0.17471161006121        0.06794710304085
C            1.51879325087029       -1.21353506484969       -0.12858651143154
O            0.88039651646617       -2.23553672937581       -0.07234335567777
O            2.80963926907329       -1.24304607078834       -0.47453061042132
H           -3.04584674448267       -1.85655149408136        1.17161179825354
H           -1.92796752331127       -3.06817701117857        0.43830971207536
H           -3.38361372617578       -2.47683746346797       -0.47549875590100
H           -1.61285714341540        2.01945794132136        1.03947201086510
H           -0.10227164436076        3.88102959556015        0.61574134684558
H            2.14896105949695        3.42485167676819       -0.33703400588158
H            2.88681972841488        0.96877415411310       -0.47954918921638
H            3.06181880256556       -2.16527147621350       -0.63954380055275
21
 energy: -39.615431530654 gnorm: 0.061563161559 xtb: 6.7.1 (edcfbbe)
C           -2.78895536236092       -2.17470801907261        0.20522435562687
C           -1.73704440379846       -1.24585795992996       -0.31892136968167
O           -1.54541563435941       -0.98436192154386       -1.47338752991608
O           -1.14662384120378       -0.53921317122365        0.67322473332762
C           -0.23735243781697        0.43788308847146        0.32791959325067
C           -0.63329714021240        1.75257558421681        0.52794412164693
C            0.22122736401834        2.83616551942677        0.44030845785153
C            1.50694850830673        2.57779489937537       -0.00836732194075
C            1.91126921027991        1.29287862518042       -0.31314372078809
C            1.05904494430703        0.20414005029731       -0.14371453020303
C            1.57512992574734       -1.18591531471895       -0.17393829417963
O            0.91060234632472       -2.16089834822770        0.07708414977561
O            2.85725991476225       -1.23437054930925       -0.54894022778363
H           -3.43834280415944       -1.74774166411733        0.96306556013021
H           -2.28690598698933       -3.00411744836061        0.69366528716565
H           -3.24011701022372       -2.69841986599460       -0.63656747374197
H           -1.58696789189026        1.87607218564247        1.01703279919734
H           -0.07425761336385        3.84883432650549        0.66950923724709
H            2.19848147574244        3.40535563722813       -0.04784864356132
H            2.87998773006731        0.97735481105791       -0.66713031309599
H            3.27894300183222       -2.10665584684768       -0.49770248213762
21
 energy: -39.612101396223 gnorm: 0.064321313363 xtb: 6.7.1 (edcfbbe)
C           -2.77957275033871       -2.13190497484643        0.14063691242215
C           -1.71043544012537       -1.20453841035353       -0.35022406918194
O           -1.46163861271460       -0.86809004161531       -1.47396625970283
O           -1.11885082024786       -0.59985499268872        0.70650805625569
C           -0.22302181081860        0.40759332506441        0.41795044893875
C           -0.67553137380581        1.70917503630263        0.58018028109712
C            0.17963962679211        2.79089627468731        0.47712202465006
C            1.46062704319559        2.56203263883741       -0.00020057551746
C            1.91608399055355        1.28971740228877       -0.28506302707842
C            1.08046195635572        0.20100280245503       -0.04677650997141
C            1.60487093156224       -1.18240051577862       -0.15022496323820
O            0.97573214776361       -2.17225619243292        0.13185873541793
O            2.84346507319317       -1.26189840324634       -0.64660818528198
H           -3.53154549350153       -1.57832163336130        0.69418012259473
H           -2.41976435719195       -2.75607923989182        0.95272836505789
H           -3.13078430729500       -2.90208581118787       -0.54486023424805
H           -1.71336514549360        1.85293882593913        0.83743518293057
H           -0.06742742812932        3.84030604292914        0.53225357677324
H            2.07588498229821        3.41921189110935       -0.22677239369140
H            2.83040564271891        0.96304992094173       -0.75472420931528
H            3.10751054403249       -2.19502084946746       -0.67637492493013
21
 energy: -39.614581890394 gnorm: 0.060487501308 xtb: 6.7.1 (edcfbbe)
C           -2.70543338978332       -2.14719133986131        0.13001424071849
C           -1.73096559962079       -1.11482675072491       -0.34815280037239
O           -1.45292243094811       -0.91796423561367       -1.49786190542879
O           -1.04850111420375       -0.58020339811871        0.69142273146859
C           -0.18847647565531        0.48383992167178        0.52143257924257
C           -0.66079092373081        1.77082470819325        0.73541296629823
C            0.15705511455448        2.81610878538613        0.34738160145043
C            1.42053785282512        2.53640121945969       -0.14912543939233
C            1.93301159048663        1.25392668974650       -0.14726436575785
C            1.10428723205248        0.16075972518153        0.09469857283566
C            1.56055746801962       -1.23639833386170       -0.10348807882572