21
 energy: -39.622955368002 gnorm: 0.075003108881 xtb: 6.7.1 (edcfbbe)
C           -2.59584300000000       -2.26972700000000        0.06727100000000
C           -1.71837400000000       -1.13719500000000       -0.37502000000000
O           -1.56820200000000       -0.79205700000000       -1.54010700000000
O           -1.14293800000000       -0.54965100000000        0.74619600000000
C           -0.23524700000000        0.46121100000000        0.41669200000000
C           -0.69853900000000        1.77771700000000        0.50904200000000
C            0.16379700000000        2.83398100000000        0.22190900000000
C            1.48449200000000        2.57521100000000       -0.14336700000000
C            1.94977400000000        1.25804300000000       -0.21629400000000
C            1.09488100000000        0.18234700000000        0.07067600000000
C            1.59039600000000       -1.21853400000000        0.02339600000000
O            0.97708600000000       -2.22549600000000        0.32579400000000
O            2.86459700000000       -1.30123800000000       -0.40604700000000
H           -3.00562400000000       -2.77442900000000       -0.81228900000000
H           -3.42265200000000       -1.88404000000000        0.66861500000000
H           -2.00886000000000       -2.99379100000000        0.63796600000000
H           -1.72736700000000        1.97829100000000        0.79457400000000
H           -0.19350500000000        3.85926000000000        0.28077700000000
H            2.15660800000000        3.39980400000000       -0.37009600000000
H            2.98634400000000        1.08414400000000       -0.49630500000000
H            3.04917700000000       -2.26385300000000       -0.40338200000000
21
 energy: -39.628562908614 gnorm: 0.022107036307 xtb: 6.7.1 (edcfbbe)
C           -2.59650630977245       -2.27596470375882        0.06066140157754
C           -1.70990437370969       -1.14839725701267       -0.37296977624161
O           -1.54142402606389       -0.79458209059854       -1.50679723044843
O           -1.14255893064725       -0.54633308204314        0.71580651292806
C           -0.23792359248929        0.47137873208088        0.42676460962220
C           -0.69176052240073        1.78106509637405        0.50463834346653
C            0.17074095260732        2.82729309454883        0.22185750527161
C            1.48366815711124        2.56502374207697       -0.13965632889598
C            1.93976384271916        1.25884246904747       -0.20917804486713
C            1.08688061511610        0.19150526865069        0.07608420132115
C            1.57655628978285       -1.20592624912202        0.01344987162143
O            0.95547761599246       -2.19651961814163        0.31516580801558
O            2.85218560710797       -1.29968471140519       -0.40630682701438
H           -3.00696577090574       -2.77505066926550       -0.81586170781528
H           -3.40781701543794       -1.89012499347122        0.67494905661291
H           -2.01154174709767       -2.98184019177699        0.64641486559323
H           -1.71831643396395        1.97381913522641        0.78092833644578
H           -0.18375605843453        3.84735549828008        0.27891470051231
H            2.15487600513800        3.38128773787775       -0.36795949925868
H            2.96626347686388        1.06834898311642       -0.48836756649660
H            3.06206321848416       -2.25149819068383       -0.40853723195025
21
 energy: -39.629480019862 gnorm: 0.009617740845 xtb: 6.7.1 (edcfbbe)
C           -2.59124445398042       -2.28205471199278        0.06457505963071
C           -1.70474128286571       -1.15577442177983       -0.37552875884290
O           -1.50921883243129       -0.80890393693314       -1.50318953429155
O           -1.15063739175132       -0.53836804225570        0.69398370515208
C           -0.24794543248403        0.47922422137350        0.42444688556935
C           -0.69081024728953        1.78889041447044        0.50072671659963
C            0.17752455826900        2.82935995778396        0.22660188903714
C            1.48854693936004        2.56220615119954       -0.13132291940705
C            1.93563444202305        1.25813231780603       -0.19963608309191
C            1.07723275626593        0.19615518285521        0.07806787434217
C            1.56125196331404       -1.20098839743117        0.01309887921323
O            0.92591712841316       -2.18454946130703        0.29853807280772
O            2.83586669972287       -1.29790248687476       -0.40657258290962
H           -2.99805042963633       -2.78186169056776       -0.80893744353269
H           -3.39765966453052       -1.89452137276878        0.68192378572479
H           -2.00585203840425       -2.97633358126490        0.66130905904101
H           -1.71867732551232        1.97787415935586        0.76711585014960
H           -0.17554663106242        3.84767544702307        0.27761191765581
H            2.16140689630197        3.37310503597486       -0.36235118671662
H            2.95647440910653        1.04923893325563       -0.47695989395413
H            3.07052893717155       -2.24060571792228       -0.42350029217679
21
 energy: -39.629770207898 gnorm: 0.004649595089 xtb: 6.7.1 (edcfbbe)
C           -2.58452030111063       -2.28729071189151        0.07026750795072
C           -1.69405321397253       -1.16736950451984       -0.37866314785298
O           -1.47964107870682       -0.83730079869322       -1.51067224653447
O           -1.16299766261824       -0.52604289097248        0.68484242065077
C           -0.25801781751401        0.48700816110251        0.42150921780228
C           -0.69305146998474        1.79958835104390        0.49572127491274
C            0.18216558856339        2.83590485092637        0.22787157040829
C            1.49407233904939        2.56321372016616       -0.12407687457624
C            1.93373589442297        1.25700169454442       -0.19222646964925
C            1.06805476547402        0.19873734075469        0.07878364158023
C            1.54287034056488       -1.20122216178548        0.00127791147919
O            0.90061526469632       -2.18158926596344        0.28222529930203
O            2.82038923385245       -1.29687029861387       -0.40696108454455
H           -2.99018701455289       -2.79453606395095       -0.79845216447892
H           -3.38950967407959       -1.89309994397136        0.68539133968186
H           -1.99815327732638       -2.97446060487114        0.67430525694525
H           -1.72214324557607        1.99026404303845        0.75648562457834
H           -0.16646004267975        3.85536734776224        0.28115987750221
H            2.17209126842950        3.37105139132621       -0.35000278568824
H            2.95295205060200        1.03561454360673       -0.46537316590124
H            3.07178905246677       -2.23397119903847       -0.43341200356807
21
 energy: -39.630113133792 gnorm: 0.011797514587 xtb: 6.7.1 (edcfbbe)
C           -2.56869507934724       -2.29884411780670        0.08000325148218
C           -1.67355790987575       -1.18986708647512       -0.38585030841750
O           -1.42242115197901       -0.90331761382164       -1.52745826513601
O           -1.19170932112202       -0.49647899624432        0.67048836976039
C           -0.27776487661959        0.50384321047213        0.41121885149944
C           -0.69699755717367        1.82282257519818        0.48801235373678
C            0.19208537561286        2.85093461486282        0.23277124570180
C            1.50501907052639        2.56647404737242       -0.10956034802860
C            1.92964413071704        1.25507444327976       -0.18202534478113
C            1.04984471809438        0.20391671875739        0.07725158267059
C            1.51173051325840       -1.20117708716673       -0.00673332726890
O            0.85390452685720       -2.17728017263645        0.25622720280161
O            2.78847042466058       -1.29782230059676       -0.41031294433775
H           -2.97328693358916       -2.82297718326257       -0.77900930680661
H           -3.37242046689673       -1.89148033769097        0.68883696222458
H           -1.98038684944281       -2.97476685861693        0.69560385309192
H           -1.72724553384032        2.02059456118869        0.74141838082446
H           -0.14733075729534        3.87375590706941        0.28851697102843
H            2.19377892702858        3.36871218761556       -0.32515250558579
H            2.94747469598201        1.01528467719965       -0.44624325900521
H            3.05986505444426       -2.22740318869796       -0.45800241545478
21
 energy: -39.630341279751 gnorm: 0.014819836886 xtb: 6.7.1 (edcfbbe)
C           -2.55029685365067       -2.31175533120286        0.08799743492097
C           -1.65295839910491       -1.21173678941564       -0.39319875810502
O           -1.37699596162777       -0.96263242396077       -1.53862305434162
O           -1.21995225039952       -0.46707982352045        0.65637983636957
C           -0.29504966322882        0.52093456135613        0.39879285414839
C           -0.70002824167739        1.84553964944795        0.48117094045556
C            0.20159641711418        2.86582157322378        0.23746505415371
C            1.51469372283149        2.56981759651516       -0.09667462794725
C            1.92529117281727        1.25378581036459       -0.17546186724211
C            1.03218305987351        0.20940092715448        0.07065138351737
C            1.48071298046071       -1.20105562460339       -0.02037894188754
O            0.81343367251641       -2.17168197911757        0.23914068463901
O            2.75869764820320       -1.30204510336003       -0.41333595063747
H           -2.95742252499462       -2.84931861326124       -0.76200769537068
H           -3.35142569511985       -1.89403179868792        0.69375335599791
H           -1.96023896426383       -2.98122090366683        0.70916529974936
H           -1.73010099741322        2.05268748454470        0.72992374675278
H           -0.12745004443959        3.89242345979194        0.29773553093133
H            2.21450633732346        3.36677320261531       -0.29940848126649
H            2.94291093295675        1.00283190161563       -0.43090918379510
H            3.03789465182327       -2.22745977583317       -0.47217656104280
21
 energy: -39.630597202202 gnorm: 0.010324521166 xtb: 6.7.1 (edcfbbe)
C           -2.53068506089097       -2.32479711034234        0.09396631590036
C           -1.63943455483098       -1.22648509923086       -0.40006851651218
O           -1.34752999095715       -1.00532311432702       -1.54341916817869
O           -1.24457230457408       -0.44167802896737        0.64028066138590
C           -0.30864057766749        0.53615297841175        0.38381189774815
C           -0.70214054493221        1.86481955055818        0.47421609163640
C            0.20969042316651        2.87840322780535        0.24134431846788
C            1.52241114104452        2.57241429179176       -0.08560001082358
C            1.92126871072029        1.25301556652126       -0.17208582520934
C            1.01710962319561        0.21473187108356        0.06062261733228
C            1.45632250900666       -1.19945874353817       -0.02734934699204
O            0.78207857585333       -2.16506505896655        0.23274702632634
O            2.73319405346654       -1.30914559508473       -0.41740220253216
H           -2.94271272674903       -2.87148619836279       -0.74843223744888
H           -3.32804286971367       -1.90351936634589        0.70184604809009
H           -1.93588274219701       -2.99078132227696        0.71415730376117
H           -1.73103650405613        2.08196529420481        0.72016091599173
H           -0.10936350782018        3.90840549492536        0.30655377006501
H            2.23211483241499        3.36458896708773       -0.27477331251983
H            2.93973016649694        0.99810005015565       -0.41929331091487
H            3.00612234902362       -2.23485965510296       -0.48128203557389
21
 energy: -39.630906885887 gnorm: 0.007921985471 xtb: 6.7.1 (edcfbbe)
C           -2.50751958888943       -2.33854330369321        0.09963371289790
C           -1.63054625271495       -1.23557093262524       -0.40826105504000
O           -1.31045912660028       -1.04903617921601       -1.54710304234986
O           -1.27284853537456       -0.41364208236045        0.61813093804264
C           -0.32237948446493        0.55359037184972        0.36640654907450
C           -0.70428898967911        1.88515745102000        0.46677580410283
C            0.21829330508121        2.89126369645760        0.24753508433357
C            1.52925482076242        2.57421489636766       -0.07375533528470
C            1.91556460657449        1.25209520276158       -0.17034101259158
C            1.00038163053323        0.22133373655741        0.04774928232054
C            1.43123059901160       -1.19554933406865       -0.03323296225035
O            0.75405333630068       -2.15544978457641        0.23841171697762
O            2.70497572773799       -1.31965932730873       -0.42737230604764
H           -2.92312777654396       -2.89391076786783       -0.73581611709050
H           -3.30129251599554       -1.92158160225968        0.71372540503954
H           -1.90238125474705       -2.99986268670620        0.71521846460448
H           -1.73061980126874        2.11426374981637        0.71098231911766
H           -0.08880050764930        3.92457075728312        0.31970392788430
H            2.24899618453536        3.36027561843180       -0.24880425340906
H            2.93478869750507        0.99747057813204       -0.41224633974374
H            2.95672592588592       -2.25143205799521       -0.48733978058832
21
 energy: -39.631142759787 gnorm: 0.008515795629 xtb: 6.7.1 (edcfbbe)
C           -2.48714579580191       -2.34955906315690        0.10330974816101
C           -1.61613900833091       -1.24734841690331       -0.41757732667812
O           -1.26928275204503       -1.08816653658134       -1.55044655003452
O           -1.29735566910377       -0.38989113135894        0.59271242329360
C           -0.33590761792120        0.57061945491055        0.35080240758598
C           -0.70750982677819        1.90378548576344        0.45969106457319
C            0.22579248407219        2.90310476980476        0.25557343382343
C            1.53449343184829        2.57603501262727       -0.06343209015323
C            1.90919918868836        1.25158354725962       -0.16955260818273
C            0.98481492456210        0.22855799872793        0.03841988058570
C            1.40956503984372       -1.18965950660937       -0.03228282245039
O            0.73341409375704       -2.14420068714759        0.26177287181236
O            2.67560694473140       -1.33029540265213       -0.44709550620769
H           -2.90908731628997       -2.90850466904187       -0.72633776619254
H           -3.27361713552644       -1.93891943597836        0.73075860295836
H           -1.86813975277205       -3.00750923345161        0.70888745120482
H           -1.73172613010650        2.14211668881555        0.70141814385147
H           -0.07023844778386        3.93864814637871        0.33614906879041
H            2.26256321817871        3.35575880321984       -0.22789635963292
H            2.92821078641389        0.99493298204948       -0.41013473180936
H            2.90249034036429       -2.27109080667610       -0.49473833529907
21
 energy: -39.631294293975 gnorm: 0.007737006523 xtb: 6.7.1 (edcfbbe)
C           -2.46831264433257       -2.35887928446880        0.10524117642518
C           -1.60335048137708       -1.25669168844199       -0.42591015498136
O           -1.21643317241836       -1.13256673414793       -1.55492802395511
O           -1.32319571316771       -0.36563379223072        0.56582928651080
C           -0.35124433039930        0.58730905064464        0.33751361525303
C           -0.71106364457621        1.92233394506727        0.45433423066329
C            0.23327971108256        2.91441497362270        0.26478377207675
C            1.53938076313051        2.57772301615979       -0.05435787626283
C            1.90214731837120        1.25061782252273       -0.16928148444107
C            0.96869467149979        0.23515722443683        0.03156161659624
C            1.38746775380692       -1.18391415220511       -0.03086149331487
O            0.71901315611559       -2.13229105114036        0.30362813383191
O            2.64172000847027       -1.34007912718140       -0.47939004266516
H           -2.89654041078399       -2.92103275122615       -0.71867398790405
H           -3.24634589312676       -1.95355220012447        0.74603874640150
H           -1.83428931840234       -3.01242076319627        0.70136093196812
H           -1.73414199586092        2.16788366261635        0.69203339415487
H           -0.05225063108496        3.95163902926395        0.35618498832703
H            2.27529468334099        3.35125766205726       -0.21000692742841
H            2.91984430700731        0.98686041714913       -0.40946331998763
H            2.85032686270522       -2.28813725917786       -0.50563558126849
21
 energy: -39.631163004000 gnorm: 0.020618255456 xtb: 6.7.1 (edcfbbe)
C           -2.45745624946194       -2.36145537572415        0.09953659926946
C           -1.59841068026705       -1.25529023436325       -0.43123319885241
O           -1.20108124267941       -1.13187087439211       -1.54916222301695
O           -1.33145749742929       -0.36018154878756        0.54065385618786
C           -0.35873602736013        0.59415935979044        0.32939630020623
C           -0.71410438855728        1.92808437616794        0.45125645976656
C            0.23526677523632        2.91698694294816        0.27132587565478
C            1.53896962285766        2.57774809717184       -0.05335079393575
C            1.89773779597001        1.25023095705086       -0.17262874520765
C            0.96244593530706        0.23853559727911        0.03015048031097
C            1.38329521945418       -1.17799990850936       -0.01580288913199
O            0.73863371573705       -2.12119028285414        0.39056887994195
O            2.61693374191111       -1.34873320395068       -0.52699595878405
H           -2.90161546874726       -2.91134904931530       -0.72299375985327
H           -3.21983721450804       -1.96871163959940        0.76776260825832
H           -1.80347968973331       -3.02002751728800        0.66976240721476
H           -1.73736471500276        2.17436502413660        0.68506584181719
H           -0.04597760306541        3.95332002656016        0.37339444919938
H            2.27646396518369        3.34817975491851       -0.20799341294721
H            2.91379359280706        0.98101052761768       -0.41625897376499
H            2.80598141234791       -2.30581302885781       -0.51245280233351
21
 energy: -39.631473947935 gnorm: 0.005093208399 xtb: 6.7.1 (edcfbbe)
C           -2.45711538962965       -2.36355941776212        0.10286298380110
C           -1.58915093005862       -1.26574697550124       -0.43139035903735
O           -1.18715956152012       -1.15191910811130       -1.55407562879866
O           -1.33784729381103       -0.35314865642921        0.54445682517473
C           -0.36273746112135        0.59633956501423        0.33021275151790
C           -0.71457091077974        1.93268107379089        0.44948169198776
C            0.23720933105843        2.91985920858579        0.26955166167273
C            1.54205581170394        2.57831627447977       -0.05030598272539
C            1.89813303447905        1.24962015344226       -0.16657135160226
C            0.95940946484246        0.23858129258826        0.03353722081423
C            1.37699535461276       -1.17980690256401       -0.01797063225731
O            0.72555347035204       -2.12204620936924        0.36713936438527
O            2.61200748075219       -1.34539751618054       -0.51821128481931
H           -2.90064542808907       -2.91778211140021       -0.71750744097430
H           -3.22056704138596       -1.95958380098675        0.76201984435516
H           -1.81290097762243       -3.02205974395032        0.68210140252641
H           -1.73815108750310        2.18028901485587        0.68294359066865
H           -0.04316938984904        3.95726247828470        0.36915272783262
H            2.28166635455994        3.34823553951374       -0.20454433425351
H            2.91338951270157        0.97476712414075       -0.40691286669800
H            2.81759665630788       -2.29490328244176       -0.52596918357076
21
 energy: -39.631535472996 gnorm: 0.004468723817 xtb: 6.7.1 (edcfbbe)
C           -2.45614193532544       -2.36337434386903        0.10216640781388
C           -1.58795859564402       -1.26546504653555       -0.43058753012348
O           -1.17926108455249       -1.15680252725482       -1.55307217377851
O           -1.33991022150217       -0.35155086997426        0.54259043497384
C           -0.36389509761173        0.59634556855311        0.33093574856797
C           -0.71471366580761        1.93339063085713        0.44880892303035
C            0.23719166738036        2.91987264368299        0.26840414730131
C            1.54233979966306        2.57826961736344       -0.05007317636664
C            1.89816256109667        1.24943774062374       -0.16389043094514
C            0.95888033979816        0.23852271493009        0.03636028654261
C            1.37575869445444       -1.18026578397017       -0.01427546723931
O            0.73016784784846       -2.12002342166484        0.38514648067857
O            2.60392667556639       -1.34587468069886       -0.52900451576036
H           -2.90321211328153       -2.91477030911927       -0.71827132120988
H           -3.21693723591563       -1.95767535185023        0.76252433096740
H           -1.81348740914811       -3.02569867818238        0.67877647829274
H           -1.73884521435402        2.18106665713927        0.68081439937411
H           -0.04372197000068        3.95723400653775        0.36707721419147
H            2.28206172471220        3.34826534124980       -0.20504776881593
H            2.91316796018072        0.97182434262692       -0.40102389590049
H            2.81642827244314       -2.29273025044529       -0.53835757159480
21
 energy: -39.631630787472 gnorm: 0.008800079339 xtb: 6.7.1 (edcfbbe)
C           -2.44817410460676       -2.36606594717245        0.10034270549440
C           -1.57401854518619       -1.27296815247648       -0.43143777724830
O           -1.14584600025583       -1.18108150883631       -1.54957188070151
O           -1.35152314510556       -0.34122384731004        0.52992471740943
C           -0.37051991686656        0.60156298628846        0.32887225561779
C           -0.71712245132870        1.94069023202210        0.44281995629803
C            0.23848622823206        2.92382551585004        0.26635315438600
C            1.54468244043411        2.57932116301187       -0.04548560078508
C            1.89749312723947        1.24938482692769       -0.15314897153373
C            0.95403538340892        0.24110996543933        0.04444302766181
C            1.36741200935473       -1.17957818167954        0.00039119536570
O            0.74136771620778       -2.10942349946238        0.45521282958329
O            2.56909254520617       -1.35145894307698       -0.57357713468062
H           -2.91236645255591       -2.90532798539845       -0.71938594333469
H           -3.19543276031417       -1.95578554706851        0.77300050090030
H           -1.80673081248069       -3.04297863477753        0.66208033127971
H           -1.74234554988625        2.19072681384814        0.66937700725969
H           -0.04124105765279        3.96182267291572        0.36332871367589
H            2.28657650584194        3.34785113458326       -0.20046297188305
H            2.91186852746611        0.96357057413161       -0.38111514394523
H            2.79430731284830       -2.29397563776007       -0.58195997082016
21
 energy: -39.631665228884 gnorm: 0.005765139719 xtb: 6.7.1 (edcfbbe)
C           -2.45347694084168       -2.36233495581150        0.09905089425636
C           -1.57387590032270       -1.27061790215456       -0.42634038734758
O           -1.14769976769026       -1.17512920157874       -1.54272667054789
O           -1.34411581687532       -0.34837646856075        0.53543872668229
C           -0.36540778536439        0.59654264860309        0.33394734260732
C           -0.71716559774955        1.93528478749974        0.44057003944534
C            0.23462810765739        2.92064926640835        0.25935646904507
C            1.54325401321417        2.57919831809911       -0.04607946037529
C            1.90152925124057        1.25009580899754       -0.14381846417523
C            0.96022999772347        0.23990429231423        0.05385554727270
C            1.37445653296714       -1.18138242233628        0.00789516381684
O            0.75794162533404       -2.10777696935147        0.47282073848584
O            2.56382945380584       -1.35092223583311       -0.58482342917750
H           -2.92487206492524       -2.89046704881001       -0.72427200863921
H           -3.19617738902222       -1.95047607902540        0.77545999404914
H           -1.81835896120912       -3.05139843267860        0.65372858641476
H           -1.74367267824821        2.18333486239790        0.66403274219067
H           -0.04991820845535        3.95824245757340        0.34739527171580
H            2.28215103138812        3.34987632965720       -0.20509129083669
H            2.91694398398285        0.96572938078007       -0.36680291381951
H            2.79977811339065       -2.28997843619072       -0.60359589106357
21
 energy: -39.631729495929 gnorm: 0.005328270337 xtb: 6.7.1 (edcfbbe)
C           -2.44907807673116       -2.36442893882312        0.09942650391246
C           -1.56578855704939       -1.27584928638963       -0.42695155821909
O           -1.12305748458133       -1.19455340216171       -1.53957814098161
O           -1.35059085251766       -0.34196969625106        0.52796384973077
C           -0.36841930210367        0.60165168485254        0.33041075122540
C           -0.71908576979694        1.94065557717148        0.43580873406337
C            0.23543387574594        2.92453378218851        0.25885021547685
C            1.54462139086592        2.58035142016195       -0.04120346149998
C            1.90087485856527        1.25042384468107       -0.13852825559080
C            0.95693984518017        0.24260209502341        0.05515178964233
C            1.36936582482656       -1.17961577824196        0.01246373071802
O            0.76278281434920       -2.10101554187029        0.50335862344845
O            2.54435969980442       -1.35564190770906       -0.60876927560268
H           -2.92767086960112       -2.88632756477341       -0.72373881997947
H           -3.18497821539122       -1.95410821948716        0.78453378796562
H           -1.81233880579782       -3.05975229645271        0.64513943354093
H           -1.74577631425274        2.19110249740969        0.65487237194146
H           -0.04695571866284        3.96291590931448        0.34537517912864
H            2.28585970832207        3.34962122464815       -0.19590984263909
H            2.91751782371006        0.96621512693237       -0.35704137224893
H            2.77598512511650       -2.29681253022405       -0.62163324403303
21
 energy: -39.631783585082 gnorm: 0.005714086266 xtb: 6.7.1 (edcfbbe)
C           -2.44553343980527       -2.36707211016227        0.10089054869405
C           -1.55394637347382       -1.28468706606203       -0.42592378470623
O           -1.09039122048913       -1.22179897862804       -1.53226530481896
O           -1.35539630024557       -0.33577051659281        0.52149510077650
C           -0.37050848629195        0.60840791861028        0.32543915983399
C           -0.72199951482736        1.94701474735522        0.42719934559332
C            0.23572029994791        2.92992471311840        0.25643251109236
C            1.54652327993583        2.58275699339691       -0.03287784329855
C            1.90142435314798        1.25181274012769       -0.12997008497049
C            0.95448017828732        0.24667127307428        0.05671274421492
C            1.36428419901588       -1.17710126463436        0.01523804102823
O            0.76990365616736       -2.09227029016164        0.53268379493234
O            2.52005682726966       -1.36199632674733       -0.63646145932363
H           -2.93390836682742       -2.87924539799191       -0.72244206891108
H           -3.17188588319255       -1.95845847772066        0.79738276822339
H           -1.80855900722607       -3.07144758798944        0.63477697376791
H           -1.74928700333418        2.19989373168834        0.63864778609368
H           -0.04440039498409        3.96932325000529        0.33893884837493
H            2.29076555962394        3.35059484510024       -0.17956201154850
H            2.92074998143976        0.97051294617580       -0.34249309496757
H            2.74190865586199       -2.30706714196251       -0.64384097008102
21
 energy: -39.631809848154 gnorm: 0.003757808042 xtb: 6.7.1 (edcfbbe)
C           -2.44809557360592       -2.36571700425570        0.10055232792775
C           -1.55105000447257       -1.28611997365551       -0.42304025198399
O           -1.08229215060621       -1.22630377695440       -1.52639119012421
O           -1.35130779010461       -0.33876704971626        0.52374056200371
C           -0.36811734869535        0.60786898350699        0.32647270127477
C           -0.72288183871732        1.94569297194442        0.42324242275668
C            0.23383613013163        2.92970456048960        0.25284349715461
C            1.54601727892211        2.58378159363830       -0.03070510677333
C            1.90342879653561        1.25314454022596       -0.12522108598944
C            0.95759429691226        0.24746469284821        0.06068494359834
C            1.36780731201657       -1.17662692380169        0.01948335795899